<?xml version="1.0" encoding="UTF-8"?>

<!-- generated on 2026-03-01T14:42:41.651286+00:00 by Eclipse SUMO sumo 1.25.0
<sumoConfiguration xmlns:xsi="http://www.w3.org/2001/XMLSchema-instance" xsi:noNamespaceSchemaLocation="http://sumo.dlr.de/xsd/sumoConfiguration.xsd">

    <input>
        <net-file value="./config/sumo_network.net.xml"/>
        <route-files value="./config/sumo_routes.rou.xml"/>
        <additional-files value="./config/sumo_traffic_lights.add.xml"/>
    </input>

    <output>
        <netstate-dump value="./config/output/netstate_dump.xml"/>
        <summary-output value="./config/output/simulation_summary.xml"/>
        <tripinfo-output value="./config/output/tripinfo.xml"/>
    </output>

    <time>
        <begin value="0"/>
        <step-length value="1.0"/>
    </time>

    <processing>
        <step-method.ballistic value="true"/>
        <lateral-resolution value="0.25"/>
        <collision.action value="none"/>
    </processing>

    <report>
        <verbose value="true"/>
        <duration-log.disable value="true"/>
        <no-step-log value="true"/>
    </report>

    <random_number>
        <seed value="42"/>
    </random_number>

    <gui_only>
        <start value="true"/>
        <delay value="100"/>
    </gui_only>

</sumoConfiguration>
-->

<tripinfos xmlns:xsi="http://www.w3.org/2001/XMLSchema-instance" xsi:noNamespaceSchemaLocation="http://sumo.dlr.de/xsd/tripinfo_file.xsd">
    <tripinfo id="north_to_south.0" depart="1.00" departLane="north1_to_2_0" departPos="5.10" departPosLat="0.00" departSpeed="0.00" departDelay="0.00" arrival="87.00" arrivalLane="1_to_south1_0" arrivalPos="489.60" arrivalPosLat="0.00" arrivalSpeed="12.99" duration="86.00" routeLength="994.90" waitingTime="0.00" waitingCount="0" stopTime="0.00" timeLoss="9.40" rerouteNo="1" devices="tripinfo_north_to_south.0 routing_north_to_south.0" vType="car" speedFactor="0.95" vaporized=""/>
    <tripinfo id="north_to_south.1" depart="6.00" departLane="north1_to_2_0" departPos="5.10" departPosLat="0.00" departSpeed="0.00" departDelay="3.00" arrival="89.00" arrivalLane="1_to_south1_0" arrivalPos="489.60" arrivalPosLat="0.00" arrivalSpeed="13.39" duration="83.00" routeLength="994.90" waitingTime="0.00" waitingCount="0" stopTime="0.00" timeLoss="10.03" rerouteNo="1" devices="tripinfo_north_to_south.1 routing_north_to_south.1" vType="car" speedFactor="1.16" vaporized=""/>
    <tripinfo id="north_to_south.2" depart="11.00" departLane="north1_to_2_0" departPos="5.10" departPosLat="0.00" departSpeed="0.00" departDelay="7.00" arrival="102.00" arrivalLane="1_to_south1_0" arrivalPos="489.60" arrivalPosLat="0.00" arrivalSpeed="12.19" duration="91.00" routeLength="994.90" waitingTime="0.00" waitingCount="0" stopTime="0.00" timeLoss="8.70" rerouteNo="1" devices="tripinfo_north_to_south.2 routing_north_to_south.2" vType="car" speedFactor="0.88" vaporized=""/>
    <tripinfo id="north_to_south.3" depart="21.00" departLane="north1_to_2_0" departPos="5.10" departPosLat="0.00" departSpeed="0.00" departDelay="16.00" arrival="104.00" arrivalLane="1_to_south1_0" arrivalPos="489.60" arrivalPosLat="0.00" arrivalSpeed="13.73" duration="83.00" routeLength="994.90" waitingTime="0.00" waitingCount="0" stopTime="0.00" timeLoss="10.07" rerouteNo="1" devices="tripinfo_north_to_south.3 routing_north_to_south.3" vType="car" speedFactor="1.08" vaporized=""/>
    <tripinfo id="north_to_south.4" depart="26.00" departLane="north1_to_2_0" departPos="5.10" departPosLat="0.00" departSpeed="0.00" departDelay="14.00" arrival="108.00" arrivalLane="1_to_south1_0" arrivalPos="489.60" arrivalPosLat="0.00" arrivalSpeed="13.88" duration="82.00" routeLength="994.90" waitingTime="0.00" waitingCount="0" stopTime="0.00" timeLoss="9.24" rerouteNo="1" devices="tripinfo_north_to_south.4 routing_north_to_south.4" vType="car" speedFactor="1.16" vaporized=""/>
    <tripinfo id="north_to_south.5" depart="31.00" departLane="north1_to_2_0" departPos="5.10" departPosLat="0.00" departSpeed="0.00" departDelay="0.00" arrival="113.00" arrivalLane="1_to_south1_0" arrivalPos="489.60" arrivalPosLat="0.00" arrivalSpeed="13.55" duration="82.00" routeLength="994.90" waitingTime="0.00" waitingCount="0" stopTime="0.00" timeLoss="9.45" rerouteNo="1" devices="tripinfo_north_to_south.5 routing_north_to_south.5" vType="car" speedFactor="1.08" vaporized=""/>
    <tripinfo id="north_to_east.0" depart="16.00" departLane="north1_to_2_0" departPos="5.10" departPosLat="0.00" departSpeed="0.00" departDelay="12.00" arrival="123.00" arrivalLane="3_to_east1_0" arrivalPos="239.60" arrivalPosLat="0.00" arrivalSpeed="12.46" duration="107.00" routeLength="993.45" waitingTime="11.00" waitingCount="1" stopTime="0.00" timeLoss="28.90" rerouteNo="1" devices="tripinfo_north_to_east.0 routing_north_to_east.0" vType="car" speedFactor="0.93" vaporized=""/>
    <tripinfo id="south_to_east.0" depart="42.00" departLane="south1_to_1_0" departPos="5.10" departPosLat="0.00" departSpeed="0.00" departDelay="0.00" arrival="128.00" arrivalLane="3_to_east1_0" arrivalPos="239.60" arrivalPosLat="0.00" arrivalSpeed="13.81" duration="86.00" routeLength="983.13" waitingTime="0.00" waitingCount="0" stopTime="0.00" timeLoss="13.66" rerouteNo="1" devices="tripinfo_south_to_east.0 routing_south_to_east.0" vType="car" speedFactor="1.01" vaporized=""/>
    <tripinfo id="east_to_west.2" depart="16.00" departLane="east1_to_3_0" departPos="5.10" departPosLat="0.00" departSpeed="0.00" departDelay="7.00" arrival="136.00" arrivalLane="1_to_west1_0" arrivalPos="489.60" arrivalPosLat="0.00" arrivalSpeed="13.85" duration="120.00" routeLength="994.90" waitingTime="26.00" waitingCount="1" stopTime="0.00" timeLoss="47.86" rerouteNo="1" devices="tripinfo_east_to_west.2 routing_east_to_west.2" vType="car" speedFactor="1.00" vaporized=""/>
    <tripinfo id="south_to_north.1" depart="12.00" departLane="south1_to_1_0" departPos="5.10" departPosLat="0.00" departSpeed="0.00" departDelay="3.00" arrival="137.00" arrivalLane="2_to_north1_1" arrivalPos="239.60" arrivalPosLat="0.00" arrivalSpeed="13.80" duration="125.00" routeLength="994.90" waitingTime="33.00" waitingCount="1" stopTime="0.00" timeLoss="52.35" rerouteNo="1" devices="tripinfo_south_to_north.1 routing_south_to_north.1" vType="car" speedFactor="0.99" vaporized=""/>
    <tripinfo id="south_to_north.0" depart="7.00" departLane="south1_to_1_0" departPos="5.10" departPosLat="0.00" departSpeed="0.00" departDelay="0.00" arrival="138.00" arrivalLane="2_to_north1_0" arrivalPos="239.60" arrivalPosLat="0.00" arrivalSpeed="13.79" duration="131.00" routeLength="994.90" waitingTime="38.00" waitingCount="1" stopTime="0.00" timeLoss="58.69" rerouteNo="1" devices="tripinfo_south_to_north.0 routing_south_to_north.0" vType="car" speedFactor="1.13" vaporized=""/>
    <tripinfo id="east_to_west.5" depart="37.00" departLane="east1_to_3_0" departPos="5.10" departPosLat="0.00" departSpeed="0.00" departDelay="0.00" arrival="138.00" arrivalLane="1_to_west1_1" arrivalPos="489.60" arrivalPosLat="0.00" arrivalSpeed="13.62" duration="101.00" routeLength="994.90" waitingTime="9.00" waitingCount="1" stopTime="0.00" timeLoss="28.67" rerouteNo="1" devices="tripinfo_east_to_west.5 routing_east_to_west.5" vType="car" speedFactor="1.08" vaporized=""/>
    <tripinfo id="south_to_north.3" depart="27.00" departLane="south1_to_1_0" departPos="5.10" departPosLat="0.00" departSpeed="0.00" departDelay="0.00" arrival="139.00" arrivalLane="2_to_north1_1" arrivalPos="239.60" arrivalPosLat="0.00" arrivalSpeed="13.10" duration="112.00" routeLength="994.90" waitingTime="18.00" waitingCount="1" stopTime="0.00" timeLoss="37.70" rerouteNo="1" devices="tripinfo_south_to_north.3 routing_south_to_north.3" vType="car" speedFactor="0.97" vaporized=""/>
    <tripinfo id="east_to_west.0" depart="6.00" departLane="east1_to_3_0" departPos="5.10" departPosLat="0.00" departSpeed="0.00" departDelay="0.00" arrival="140.00" arrivalLane="1_to_west1_1" arrivalPos="489.60" arrivalPosLat="0.00" arrivalSpeed="13.74" duration="134.00" routeLength="994.90" waitingTime="30.00" waitingCount="2" stopTime="0.00" timeLoss="61.72" rerouteNo="1" devices="tripinfo_east_to_west.0 routing_east_to_west.0" vType="car" speedFactor="1.03" vaporized=""/>
    <tripinfo id="west_to_east.1" depart="18.00" departLane="west1_to_1_0" departPos="5.10" departPosLat="0.00" departSpeed="0.00" departDelay="4.00" arrival="140.00" arrivalLane="3_to_east1_1" arrivalPos="239.60" arrivalPosLat="0.00" arrivalSpeed="12.66" duration="122.00" routeLength="994.90" waitingTime="25.00" waitingCount="1" stopTime="0.00" timeLoss="44.93" rerouteNo="1" devices="tripinfo_west_to_east.1 routing_west_to_east.1" vType="car" speedFactor="0.94" vaporized=""/>
    <tripinfo id="south_to_north.2" depart="19.00" departLane="south1_to_1_0" departPos="5.10" departPosLat="0.00" departSpeed="0.00" departDelay="0.00" arrival="140.00" arrivalLane="2_to_north1_0" arrivalPos="239.60" arrivalPosLat="0.00" arrivalSpeed="13.74" duration="121.00" routeLength="994.90" waitingTime="28.00" waitingCount="1" stopTime="0.00" timeLoss="48.20" rerouteNo="1" devices="tripinfo_south_to_north.2 routing_south_to_north.2" vType="car" speedFactor="1.10" vaporized=""/>
    <tripinfo id="west_to_east.0" depart="8.00" departLane="west1_to_1_0" departPos="5.10" departPosLat="0.00" departSpeed="0.00" departDelay="0.00" arrival="141.00" arrivalLane="3_to_east1_0" arrivalPos="239.60" arrivalPosLat="0.00" arrivalSpeed="12.19" duration="133.00" routeLength="994.90" waitingTime="31.00" waitingCount="1" stopTime="0.00" timeLoss="50.61" rerouteNo="1" devices="tripinfo_west_to_east.0 routing_west_to_east.0" vType="car" speedFactor="0.88" vaporized=""/>
    <tripinfo id="east_to_west.1" depart="11.00" departLane="east1_to_3_0" departPos="5.10" departPosLat="0.00" departSpeed="0.00" departDelay="3.00" arrival="141.00" arrivalLane="1_to_west1_0" arrivalPos="489.60" arrivalPosLat="0.00" arrivalSpeed="11.48" duration="130.00" routeLength="994.90" waitingTime="25.00" waitingCount="1" stopTime="0.00" timeLoss="44.37" rerouteNo="1" devices="tripinfo_east_to_west.1 routing_east_to_west.1" vType="car" speedFactor="0.84" vaporized=""/>
    <tripinfo id="west_to_east.2" depart="26.00" departLane="west1_to_1_0" departPos="5.10" departPosLat="0.00" departSpeed="0.00" departDelay="9.00" arrival="142.00" arrivalLane="3_to_east1_0" arrivalPos="239.60" arrivalPosLat="0.00" arrivalSpeed="12.62" duration="116.00" routeLength="994.90" waitingTime="21.00" waitingCount="1" stopTime="0.00" timeLoss="43.87" rerouteNo="1" devices="tripinfo_west_to_east.2 routing_west_to_east.2" vType="car" speedFactor="1.13" vaporized=""/>
    <tripinfo id="south_to_north.4" depart="36.00" departLane="south1_to_1_0" departPos="5.10" departPosLat="0.00" departSpeed="0.00" departDelay="0.00" arrival="143.00" arrivalLane="2_to_north1_1" arrivalPos="239.60" arrivalPosLat="0.00" arrivalSpeed="12.21" duration="107.00" routeLength="994.90" waitingTime="7.00" waitingCount="1" stopTime="0.00" timeLoss="26.74" rerouteNo="1" devices="tripinfo_south_to_north.4 routing_south_to_north.4" vType="car" speedFactor="0.91" vaporized=""/>
    <tripinfo id="east_to_west.3" depart="20.00" departLane="east1_to_3_0" departPos="5.10" departPosLat="0.00" departSpeed="0.00" departDelay="3.00" arrival="144.00" arrivalLane="1_to_west1_0" arrivalPos="489.60" arrivalPosLat="0.00" arrivalSpeed="12.14" duration="124.00" routeLength="994.90" waitingTime="22.00" waitingCount="1" stopTime="0.00" timeLoss="41.51" rerouteNo="1" devices="tripinfo_east_to_west.3 routing_east_to_west.3" vType="car" speedFactor="0.88" vaporized=""/>
    <tripinfo id="west_to_north.0" depart="2.00" departLane="west1_to_1_0" departPos="5.10" departPosLat="0.00" departSpeed="0.00" departDelay="0.00" arrival="148.00" arrivalLane="2_to_north1_1" arrivalPos="239.60" arrivalPosLat="0.00" arrivalSpeed="13.82" duration="146.00" routeLength="993.45" waitingTime="50.00" waitingCount="2" stopTime="0.00" timeLoss="73.20" rerouteNo="1" devices="tripinfo_west_to_north.0 routing_west_to_north.0" vType="car" speedFactor="1.07" vaporized=""/>
    <tripinfo id="south_to_north.5" depart="50.00" departLane="south1_to_1_0" departPos="5.10" departPosLat="0.00" departSpeed="0.00" departDelay="0.00" arrival="148.00" arrivalLane="2_to_north1_0" arrivalPos="239.60" arrivalPosLat="0.00" arrivalSpeed="13.61" duration="98.00" routeLength="994.90" waitingTime="4.00" waitingCount="1" stopTime="0.00" timeLoss="25.78" rerouteNo="1" devices="tripinfo_south_to_north.5 routing_south_to_north.5" vType="car" speedFactor="1.15" vaporized=""/>
    <tripinfo id="south_to_north.7" depart="60.00" departLane="south1_to_1_0" departPos="5.10" departPosLat="0.00" departSpeed="0.00" departDelay="1.00" arrival="150.00" arrivalLane="2_to_north1_0" arrivalPos="239.60" arrivalPosLat="0.00" arrivalSpeed="13.82" duration="90.00" routeLength="994.90" waitingTime="0.00" waitingCount="0" stopTime="0.00" timeLoss="17.57" rerouteNo="1" devices="tripinfo_south_to_north.7 routing_south_to_north.7" vType="car" speedFactor="1.06" vaporized=""/>
    <tripinfo id="south_to_north.6" depart="55.00" departLane="south1_to_1_0" departPos="5.10" departPosLat="0.00" departSpeed="0.00" departDelay="4.00" arrival="151.00" arrivalLane="2_to_north1_1" arrivalPos="239.60" arrivalPosLat="0.00" arrivalSpeed="13.63" duration="96.00" routeLength="994.90" waitingTime="2.00" waitingCount="2" stopTime="0.00" timeLoss="23.65" rerouteNo="1" devices="tripinfo_south_to_north.6 routing_south_to_north.6" vType="car" speedFactor="1.15" vaporized=""/>
    <tripinfo id="east_to_west.4" depart="25.00" departLane="east1_to_3_0" departPos="5.10" departPosLat="0.00" departSpeed="0.00" departDelay="7.00" arrival="156.00" arrivalLane="1_to_west1_0" arrivalPos="489.60" arrivalPosLat="0.00" arrivalSpeed="13.58" duration="131.00" routeLength="994.90" waitingTime="21.00" waitingCount="3" stopTime="0.00" timeLoss="58.84" rerouteNo="1" devices="tripinfo_east_to_west.4 routing_east_to_west.4" vType="car" speedFactor="1.24" vaporized=""/>
    <tripinfo id="east_to_west.6" depart="42.00" departLane="east1_to_3_0" departPos="5.10" departPosLat="0.00" departSpeed="0.00" departDelay="3.00" arrival="158.00" arrivalLane="1_to_west1_0" arrivalPos="489.60" arrivalPosLat="1.20" arrivalSpeed="12.95" duration="116.00" routeLength="994.90" waitingTime="12.00" waitingCount="2" stopTime="0.00" timeLoss="38.62" rerouteNo="1" devices="tripinfo_east_to_west.6 routing_east_to_west.6" vType="car" speedFactor="0.94" vaporized=""/>
    <tripinfo id="west_to_east.7" depart="57.00" departLane="west1_to_1_0" departPos="5.10" departPosLat="0.00" departSpeed="0.00" departDelay="16.00" arrival="160.00" arrivalLane="3_to_east1_1" arrivalPos="239.60" arrivalPosLat="0.00" arrivalSpeed="13.64" duration="103.00" routeLength="994.90" waitingTime="7.00" waitingCount="1" stopTime="0.00" timeLoss="30.87" rerouteNo="1" devices="tripinfo_west_to_east.7 routing_west_to_east.7" vType="car" speedFactor="1.08" vaporized=""/>
    <tripinfo id="west_to_south.0" depart="34.00" departLane="west1_to_1_0" departPos="5.10" departPosLat="0.00" departSpeed="0.00" departDelay="11.00" arrival="161.00" arrivalLane="1_to_south1_0" arrivalPos="489.60" arrivalPosLat="0.00" arrivalSpeed="11.89" duration="127.00" routeLength="983.13" waitingTime="20.00" waitingCount="2" stopTime="0.00" timeLoss="44.38" rerouteNo="0" devices="tripinfo_west_to_south.0 routing_west_to_south.0" vType="car" speedFactor="0.87" vaporized=""/>
    <tripinfo id="west_to_east.3" depart="29.00" departLane="west1_to_1_0" departPos="5.10" departPosLat="0.00" departSpeed="0.00" departDelay="11.00" arrival="167.00" arrivalLane="3_to_east1_0" arrivalPos="239.60" arrivalPosLat="0.00" arrivalSpeed="13.66" duration="138.00" routeLength="994.90" waitingTime="28.00" waitingCount="3" stopTime="0.00" timeLoss="65.90" rerouteNo="1" devices="tripinfo_west_to_east.3 routing_west_to_east.3" vType="car" speedFactor="1.00" vaporized=""/>
    <tripinfo id="east_to_west.8" depart="84.00" departLane="east1_to_3_0" departPos="5.10" departPosLat="0.00" departSpeed="0.00" departDelay="4.00" arrival="171.00" arrivalLane="1_to_west1_0" arrivalPos="489.60" arrivalPosLat="0.00" arrivalSpeed="13.72" duration="87.00" routeLength="994.90" waitingTime="0.00" waitingCount="0" stopTime="0.00" timeLoss="14.06" rerouteNo="1" devices="tripinfo_east_to_west.8 routing_east_to_west.8" vType="car" speedFactor="1.07" vaporized=""/>
    <tripinfo id="west_to_north.1" depart="13.00" departLane="west1_to_1_0" departPos="5.10" departPosLat="0.00" departSpeed="0.00" departDelay="3.00" arrival="172.00" arrivalLane="2_to_north1_0" arrivalPos="239.60" arrivalPosLat="0.00" arrivalSpeed="11.32" duration="159.00" routeLength="993.45" waitingTime="44.00" waitingCount="4" stopTime="0.00" timeLoss="69.37" rerouteNo="1" devices="tripinfo_west_to_north.1 routing_west_to_north.1" vType="car" speedFactor="0.82" vaporized=""/>
    <tripinfo id="south_to_east.1" depart="76.00" departLane="south1_to_1_0" departPos="5.10" departPosLat="0.00" departSpeed="0.00" departDelay="4.00" arrival="172.00" arrivalLane="3_to_east1_0" arrivalPos="239.60" arrivalPosLat="0.00" arrivalSpeed="12.65" duration="96.00" routeLength="983.13" waitingTime="0.00" waitingCount="0" stopTime="0.00" timeLoss="18.06" rerouteNo="1" devices="tripinfo_south_to_east.1 routing_south_to_east.1" vType="car" speedFactor="0.92" vaporized=""/>
    <tripinfo id="east_to_west.9" depart="89.00" departLane="east1_to_3_0" departPos="5.10" departPosLat="0.00" departSpeed="0.00" departDelay="7.00" arrival="172.00" arrivalLane="1_to_west1_1" arrivalPos="489.60" arrivalPosLat="0.00" arrivalSpeed="13.46" duration="83.00" routeLength="994.90" waitingTime="0.00" waitingCount="0" stopTime="0.00" timeLoss="10.75" rerouteNo="1" devices="tripinfo_east_to_west.9 routing_east_to_west.9" vType="car" speedFactor="1.14" vaporized=""/>
    <tripinfo id="south_to_north.8" depart="71.00" departLane="south1_to_1_0" departPos="5.10" departPosLat="0.00" departSpeed="0.00" departDelay="0.00" arrival="174.00" arrivalLane="2_to_north1_0" arrivalPos="239.60" arrivalPosLat="0.00" arrivalSpeed="11.28" duration="103.00" routeLength="994.90" waitingTime="1.00" waitingCount="1" stopTime="0.00" timeLoss="17.43" rerouteNo="1" devices="tripinfo_south_to_north.8 routing_south_to_north.8" vType="car" speedFactor="0.85" vaporized=""/>
    <tripinfo id="east_to_west.7" depart="79.00" departLane="east1_to_3_0" departPos="5.10" departPosLat="0.00" departSpeed="0.00" departDelay="0.00" arrival="176.00" arrivalLane="1_to_west1_0" arrivalPos="489.60" arrivalPosLat="0.00" arrivalSpeed="13.54" duration="97.00" routeLength="994.90" waitingTime="4.00" waitingCount="1" stopTime="0.00" timeLoss="24.40" rerouteNo="1" devices="tripinfo_east_to_west.7 routing_east_to_west.7" vType="car" speedFactor="1.10" vaporized=""/>
    <tripinfo id="west_to_east.5" depart="47.00" departLane="west1_to_1_0" departPos="5.10" departPosLat="0.00" departSpeed="0.00" departDelay="15.00" arrival="177.00" arrivalLane="3_to_east1_0" arrivalPos="239.60" arrivalPosLat="0.00" arrivalSpeed="12.91" duration="130.00" routeLength="994.90" waitingTime="18.00" waitingCount="4" stopTime="0.00" timeLoss="53.26" rerouteNo="1" devices="tripinfo_west_to_east.5 routing_west_to_east.5" vType="car" speedFactor="0.94" vaporized=""/>
    <tripinfo id="west_to_east.6" depart="52.00" departLane="west1_to_1_0" departPos="5.10" departPosLat="0.00" departSpeed="0.00" departDelay="15.00" arrival="179.00" arrivalLane="3_to_east1_0" arrivalPos="239.60" arrivalPosLat="0.00" arrivalSpeed="13.83" duration="127.00" routeLength="994.90" waitingTime="17.00" waitingCount="4" stopTime="0.00" timeLoss="54.29" rerouteNo="1" devices="tripinfo_west_to_east.6 routing_west_to_east.6" vType="car" speedFactor="1.00" vaporized=""/>
    <tripinfo id="west_to_south.1" depart="79.00" departLane="west1_to_1_0" departPos="5.10" departPosLat="0.00" departSpeed="0.00" departDelay="7.00" arrival="182.00" arrivalLane="1_to_south1_0" arrivalPos="489.60" arrivalPosLat="0.00" arrivalSpeed="13.72" duration="103.00" routeLength="983.13" waitingTime="6.00" waitingCount="1" stopTime="0.00" timeLoss="30.43" rerouteNo="0" devices="tripinfo_west_to_south.1 routing_west_to_south.1" vType="car" speedFactor="1.04" vaporized=""/>
    <tripinfo id="east_to_west.11" depart="99.00" departLane="east1_to_3_0" departPos="5.10" departPosLat="0.00" departSpeed="0.00" departDelay="12.00" arrival="182.00" arrivalLane="1_to_west1_0" arrivalPos="489.60" arrivalPosLat="0.00" arrivalSpeed="13.44" duration="83.00" routeLength="994.90" waitingTime="0.00" waitingCount="0" stopTime="0.00" timeLoss="10.03" rerouteNo="1" devices="tripinfo_east_to_west.11 routing_east_to_west.11" vType="car" speedFactor="1.08" vaporized=""/>
    <tripinfo id="west_to_east.10" depart="70.00" departLane="west1_to_1_0" departPos="5.10" departPosLat="0.00" departSpeed="0.00" departDelay="9.00" arrival="185.00" arrivalLane="3_to_east1_0" arrivalPos="239.60" arrivalPosLat="0.00" arrivalSpeed="11.67" duration="115.00" routeLength="994.90" waitingTime="7.00" waitingCount="1" stopTime="0.00" timeLoss="30.92" rerouteNo="1" devices="tripinfo_west_to_east.10 routing_west_to_east.10" vType="car" speedFactor="0.86" vaporized=""/>
    <tripinfo id="west_to_east.11" depart="83.00" departLane="west1_to_1_0" departPos="5.10" departPosLat="0.00" departSpeed="0.00" departDelay="8.00" arrival="185.00" arrivalLane="3_to_east1_1" arrivalPos="239.60" arrivalPosLat="0.00" arrivalSpeed="13.71" duration="102.00" routeLength="994.90" waitingTime="6.00" waitingCount="1" stopTime="0.00" timeLoss="29.22" rerouteNo="1" devices="tripinfo_west_to_east.11 routing_west_to_east.11" vType="car" speedFactor="1.02" vaporized=""/>
    <tripinfo id="west_to_south.2" depart="88.00" departLane="west1_to_1_0" departPos="5.10" departPosLat="0.00" departSpeed="0.00" departDelay="12.00" arrival="186.00" arrivalLane="1_to_south1_0" arrivalPos="489.60" arrivalPosLat="0.00" arrivalSpeed="13.51" duration="98.00" routeLength="983.13" waitingTime="3.00" waitingCount="1" stopTime="0.00" timeLoss="25.20" rerouteNo="0" devices="tripinfo_west_to_south.2 routing_west_to_south.2" vType="car" speedFactor="1.14" vaporized=""/>
    <tripinfo id="east_to_west.10" depart="94.00" departLane="east1_to_3_0" departPos="5.10" departPosLat="0.00" departSpeed="0.00" departDelay="8.00" arrival="186.00" arrivalLane="1_to_west1_0" arrivalPos="489.60" arrivalPosLat="0.00" arrivalSpeed="12.10" duration="92.00" routeLength="994.90" waitingTime="0.00" waitingCount="0" stopTime="0.00" timeLoss="8.93" rerouteNo="1" devices="tripinfo_east_to_west.10 routing_east_to_west.10" vType="car" speedFactor="0.88" vaporized=""/>
    <tripinfo id="west_to_east.12" depart="93.00" departLane="west1_to_1_0" departPos="5.10" departPosLat="0.00" departSpeed="0.00" departDelay="15.00" arrival="191.00" arrivalLane="3_to_east1_0" arrivalPos="239.60" arrivalPosLat="0.00" arrivalSpeed="12.49" duration="98.00" routeLength="994.90" waitingTime="0.00" waitingCount="0" stopTime="0.00" timeLoss="18.13" rerouteNo="1" devices="tripinfo_west_to_east.12 routing_west_to_east.12" vType="car" speedFactor="0.91" vaporized=""/>
    <tripinfo id="west_to_east.14" depart="107.00" departLane="west1_to_1_0" departPos="5.10" departPosLat="0.00" departSpeed="0.00" departDelay="18.00" arrival="191.00" arrivalLane="3_to_east1_1" arrivalPos="239.60" arrivalPosLat="0.00" arrivalSpeed="13.81" duration="84.00" routeLength="994.90" waitingTime="0.00" waitingCount="0" stopTime="0.00" timeLoss="11.64" rerouteNo="1" devices="tripinfo_west_to_east.14 routing_west_to_east.14" vType="car" speedFactor="1.10" vaporized=""/>
    <tripinfo id="west_to_north.2" depart="22.00" departLane="west1_to_1_0" departPos="5.10" departPosLat="0.00" departSpeed="0.00" departDelay="8.00" arrival="192.00" arrivalLane="2_to_north1_0" arrivalPos="239.60" arrivalPosLat="0.00" arrivalSpeed="13.27" duration="170.00" routeLength="993.45" waitingTime="63.00" waitingCount="6" stopTime="0.00" timeLoss="96.44" rerouteNo="1" devices="tripinfo_west_to_north.2 routing_west_to_north.2" vType="car" speedFactor="0.99" vaporized=""/>
    <tripinfo id="west_to_north.3" depart="39.00" departLane="west1_to_1_0" departPos="5.10" departPosLat="0.00" departSpeed="0.00" departDelay="15.00" arrival="194.00" arrivalLane="2_to_north1_0" arrivalPos="239.60" arrivalPosLat="0.00" arrivalSpeed="13.67" duration="155.00" routeLength="993.45" waitingTime="43.00" waitingCount="6" stopTime="0.00" timeLoss="82.22" rerouteNo="1" devices="tripinfo_west_to_north.3 routing_west_to_north.3" vType="car" speedFactor="1.05" vaporized=""/>
    <tripinfo id="west_to_east.13" depart="98.00" departLane="west1_to_1_0" departPos="5.10" departPosLat="0.00" departSpeed="0.00" departDelay="15.00" arrival="194.00" arrivalLane="3_to_east1_0" arrivalPos="239.60" arrivalPosLat="0.00" arrivalSpeed="11.95" duration="96.00" routeLength="994.90" waitingTime="0.00" waitingCount="0" stopTime="0.00" timeLoss="13.13" rerouteNo="1" devices="tripinfo_west_to_east.13 routing_west_to_east.13" vType="car" speedFactor="0.87" vaporized=""/>
    <tripinfo id="west_to_south.3" depart="111.00" departLane="west1_to_1_0" departPos="5.10" departPosLat="0.00" departSpeed="0.00" departDelay="19.00" arrival="195.00" arrivalLane="1_to_south1_0" arrivalPos="489.60" arrivalPosLat="0.00" arrivalSpeed="13.71" duration="84.00" routeLength="983.13" waitingTime="0.00" waitingCount="0" stopTime="0.00" timeLoss="12.21" rerouteNo="0" devices="tripinfo_west_to_south.3 routing_west_to_south.3" vType="car" speedFactor="1.09" vaporized=""/>
    <tripinfo id="west_to_east.4" depart="43.00" departLane="west1_to_1_0" departPos="5.10" departPosLat="0.00" departSpeed="0.00" departDelay="18.00" arrival="196.00" arrivalLane="3_to_east1_0" arrivalPos="239.60" arrivalPosLat="0.00" arrivalSpeed="13.66" duration="153.00" routeLength="994.90" waitingTime="39.00" waitingCount="6" stopTime="0.00" timeLoss="80.53" rerouteNo="1" devices="tripinfo_west_to_east.4 routing_west_to_east.4" vType="car" speedFactor="1.12" vaporized=""/>
    <tripinfo id="west_to_east.15" depart="116.00" departLane="west1_to_1_0" departPos="5.10" departPosLat="0.00" departSpeed="0.00" departDelay="23.00" arrival="198.00" arrivalLane="3_to_east1_0" arrivalPos="239.60" arrivalPosLat="0.00" arrivalSpeed="13.69" duration="82.00" routeLength="994.90" waitingTime="0.00" waitingCount="0" stopTime="0.00" timeLoss="9.30" rerouteNo="1" devices="tripinfo_west_to_east.15 routing_west_to_east.15" vType="car" speedFactor="1.04" vaporized=""/>
    <tripinfo id="west_to_south.4" depart="121.00" departLane="west1_to_1_0" departPos="5.10" departPosLat="0.00" departSpeed="0.00" departDelay="26.00" arrival="206.00" arrivalLane="1_to_south1_0" arrivalPos="489.60" arrivalPosLat="0.00" arrivalSpeed="13.42" duration="85.00" routeLength="983.13" waitingTime="0.00" waitingCount="0" stopTime="0.00" timeLoss="12.79" rerouteNo="0" devices="tripinfo_west_to_south.4 routing_west_to_south.4" vType="car" speedFactor="1.00" vaporized=""/>
    <tripinfo id="east_to_west.12" depart="122.00" departLane="east1_to_3_0" departPos="5.10" departPosLat="0.00" departSpeed="0.00" departDelay="0.00" arrival="206.00" arrivalLane="1_to_west1_0" arrivalPos="489.60" arrivalPosLat="0.00" arrivalSpeed="13.67" duration="84.00" routeLength="994.90" waitingTime="0.00" waitingCount="0" stopTime="0.00" timeLoss="11.36" rerouteNo="1" devices="tripinfo_east_to_west.12 routing_east_to_west.12" vType="car" speedFactor="1.11" vaporized=""/>
    <tripinfo id="west_to_north.4" depart="75.00" departLane="west1_to_1_0" departPos="5.10" departPosLat="0.00" departSpeed="0.00" departDelay="3.00" arrival="217.00" arrivalLane="2_to_north1_0" arrivalPos="239.60" arrivalPosLat="0.00" arrivalSpeed="13.86" duration="142.00" routeLength="993.45" waitingTime="24.00" waitingCount="4" stopTime="0.00" timeLoss="69.43" rerouteNo="1" devices="tripinfo_west_to_north.4 routing_west_to_north.4" vType="car" speedFactor="1.03" vaporized=""/>
    <tripinfo id="west_to_east.9" depart="67.00" departLane="west1_to_1_0" departPos="5.10" departPosLat="0.00" departSpeed="0.00" departDelay="15.00" arrival="219.00" arrivalLane="3_to_east1_0" arrivalPos="239.60" arrivalPosLat="0.00" arrivalSpeed="13.83" duration="152.00" routeLength="994.90" waitingTime="32.00" waitingCount="5" stopTime="0.00" timeLoss="79.23" rerouteNo="1" devices="tripinfo_west_to_east.9 routing_west_to_east.9" vType="car" speedFactor="1.06" vaporized=""/>
    <tripinfo id="west_to_north.5" depart="103.00" departLane="west1_to_1_0" departPos="5.10" departPosLat="0.00" departSpeed="0.00" departDelay="20.00" arrival="219.00" arrivalLane="2_to_north1_0" arrivalPos="239.60" arrivalPosLat="0.00" arrivalSpeed="13.15" duration="116.00" routeLength="993.45" waitingTime="11.00" waitingCount="2" stopTime="0.00" timeLoss="41.44" rerouteNo="1" devices="tripinfo_west_to_north.5 routing_west_to_north.5" vType="car" speedFactor="0.97" vaporized=""/>
    <tripinfo id="west_to_east.8" depart="62.00" departLane="west1_to_1_0" departPos="5.10" departPosLat="0.00" departSpeed="0.00" departDelay="20.00" arrival="220.00" arrivalLane="3_to_east1_1" arrivalPos="239.60" arrivalPosLat="0.00" arrivalSpeed="11.30" duration="158.00" routeLength="994.90" waitingTime="31.00" waitingCount="5" stopTime="0.00" timeLoss="70.60" rerouteNo="1" devices="tripinfo_west_to_east.8 routing_west_to_east.8" vType="car" speedFactor="0.82" vaporized=""/>